Title: **.subckt tb_inverter
Date: Tue Mar  2 13:28:25  2021
Plotname: Transient Analysis
Flags: real
No. Variables: 18
No. Points: 5150
Variables:
	0	time	time
	1	@m.x1.xm1.msky130_fd_pr__nfet_01v8[gm]	admittance
	2	i(@m.x1.xm1.msky130_fd_pr__nfet_01v8[id])	current
	3	@m.x1.xm2.msky130_fd_pr__pfet_01v8[gm]	admittance
	4	i(@m.x1.xm2.msky130_fd_pr__pfet_01v8[id])	current
	5	v(m.x1.xm1.msky130_fd_pr__nfet_01v8#body)	voltage
	6	v(m.x1.xm1.msky130_fd_pr__nfet_01v8#dbody)	voltage
	7	v(m.x1.xm1.msky130_fd_pr__nfet_01v8#sbody)	voltage
	8	v(m.x1.xm2.msky130_fd_pr__pfet_01v8#body)	voltage
	9	v(m.x1.xm2.msky130_fd_pr__pfet_01v8#dbody)	voltage
	10	v(m.x1.xm2.msky130_fd_pr__pfet_01v8#sbody)	voltage
	11	v(out)	voltage
	12	i(v1)	current
	13	i(v2)	current
	14	i(v3)	current
	15	v(vdd)	voltage
	16	v(vin)	voltage
	17	v(vss)	voltage
Values:
 0	0.000000000000000e+00
	1.541354615836907e-12
	5.784244319753860e-14
	1.076665660467984e-12
	1.644848423659366e-12
	2.250948299125324e-11
	5.627162324707105e-11
	1.125474149534052e-11
	1.800000000000000e+00
	1.800000000000000e+00
	1.800000000000000e+00
	1.799999996667856e+00
	0.000000000000000e+00
	-1.856292897173262e-12
	2.266500770873613e-15
	1.800000000000000e+00
	0.000000000000000e+00
	0.000000000000000e+00

 1	1.000000000000000e-14
	1.541354615836905e-12
	5.784244319753854e-14
	1.076692872141836e-12
	1.644889971870854e-12
	2.250916120161151e-11
	5.627054378010143e-11
	1.125464764874055e-11
	1.799999999999971e+00
	1.799999999999966e+00
	1.800000000000024e+00
	1.799999996667853e+00
	-1.595945597898663e-15
	-1.646682790124032e-12
	1.110302791984104e-14
	1.800000000000000e+00
	0.000000000000000e+00
	0.000000000000000e+00

 2	2.000000000000000e-14
	1.541354615836904e-12
	5.784244319753847e-14
	1.076693766772248e-12
	1.644891360514282e-12
	2.250938324621643e-11
	5.627043275779897e-11
	1.125467501768679e-11
	1.799999999999979e+00
	1.799999999999971e+00
	1.800000000000014e+00
	1.799999996667851e+00
	2.116362640691705e-16
	-1.646682790124032e-12
	-1.730570701159439e-14
	1.800000000000000e+00
	0.000000000000000e+00
	0.000000000000000e+00

 3	4.000000000000000e-14
	1.541354615836897e-12
	5.784244319753829e-14
	1.076695468433702e-12
	1.644893915618189e-12
	2.250943875736766e-11
	5.627109889161375e-11
	1.125470494362921e-11
	1.799999999999989e+00
	1.799999999999981e+00
	1.799999999999999e+00
	1.799999996667847e+00
	-5.898059818321144e-17
	-1.644906433284632e-12
	1.111716272320657e-14
	1.800000000000000e+00
	0.000000000000000e+00
	0.000000000000000e+00

 4	8.000000000000000e-14
	1.541354615836884e-12
	5.784244319753789e-14
	1.076698223895373e-12
	1.644898192639952e-12
	2.250927222391397e-11
	5.627098786931128e-11
	1.125467140936981e-11
	1.799999999999991e+00
	1.799999999999988e+00
	1.799999999999994e+00
	1.799999996667838e+00
	-1.058181320345852e-16
	-1.646682790124032e-12
	-1.728173459122957e-14
	1.800000000000000e+00
	0.000000000000000e+00
	0.000000000000000e+00

 5	1.600000000000000e-13
	1.541354615836848e-12
	5.784244319753686e-14
	1.076704096398221e-12
	1.644907135503641e-12
	2.250891140143096e-11
	5.626982213513543e-11
	1.125445971254214e-11
	1.799999999999993e+00
	1.799999999999991e+00
	1.799999999999998e+00
	1.799999996667820e+00
	-2.428612866367530e-16
	-1.643130076445232e-12
	3.976789958058130e-15
	1.800000000000000e+00
	0.000000000000000e+00
	0.000000000000000e+00

 6	3.200000000000000e-13
	1.541354615836808e-12
	5.784244319753555e-14
	1.076715356439825e-12
	1.644924354682172e-12
	2.250900854594562e-11
	5.627084909143321e-11
	1.125449807310151e-11
	1.799999999999994e+00
	1.799999999999992e+00
	1.799999999999998e+00
	1.799999996667785e+00
	-1.522219850169648e-16
	-1.643130076445232e-12
	4.728499135543514e-16
	1.800000000000000e+00
	0.000000000000000e+00
	0.000000000000000e+00

 7	6.400000000000000e-13
	1.541354615836726e-12
	5.784244319753295e-14
	1.076737411315221e-12
	1.644958070944648e-12
	2.250891140143096e-11
	5.626988458518056e-11
	1.125446283324729e-11
	1.799999999999992e+00
	1.799999999999992e+00
	1.799999999999996e+00
	1.799999996667716e+00
	-2.641116492174689e-16
	-1.648459146963432e-12
	-1.351116189326279e-15
	1.800000000000000e+00
	0.000000000000000e+00
	0.000000000000000e+00

 8	1.000000000000000e-12
	1.541354615836638e-12
	5.784244319753009e-14
	1.076761955126831e-12
	1.644995564317253e-12
	2.250901895428647e-11
	5.627083521364540e-11
	1.125450136099465e-11
	1.799999999999994e+00
	1.799999999999992e+00
	1.799999999999996e+00
	1.799999996667641e+00
	-1.335737076502141e-16
	-1.644906433284632e-12
	2.248936594016558e-15
	1.800000000000000e+00
	0.000000000000000e+00
	0.000000000000000e+00

 9	1.064000000000000e-12
	3.464624827605436e-11
	1.301613497803876e-12
	4.882141142339702e-08
	5.861705210258436e-08
	6.717769812438323e-03
	3.150578994172343e-03
	3.001516487572928e-03
	1.800230852172900e+00
	1.800209362899776e+00
	1.800176180543520e+00
	1.800129817033193e+00
	-4.337042492117109e-03
	1.833564764957885e-03
	7.790805760937713e-16
	1.800000000000000e+00
	1.151999999999999e-01
	0.000000000000000e+00

 10	1.192000000000000e-12
	1.561963882052316e-08
	5.916072870625617e-10
	1.827604190746547e-07
	1.380810706481783e-07
	6.737668975286666e-03
	3.566061447873983e-03
	3.646419224985483e-03
	1.800186896137071e+00
	1.800119962788215e+00
	1.800069507319422e+00
	1.800389370209820e+00
	-4.350532577568199e-03
	1.828430732137676e-03
	1.130470500196323e-15
	1.800000000000000e+00
	3.456000000000000e-01
	0.000000000000000e+00

 11	1.448000000000000e-12
	1.062217170005813e-04
	9.848247059894518e-06
	4.599877187429592e-07
	1.099724314308859e-07
	3.246565972219926e-03
	1.522472299404339e-03
	1.491468928165610e-03
	1.801273781937342e+00
	1.800612847387609e+00
	1.800571013244779e+00
	1.800915102162542e+00
	-4.441463424753487e-03
	1.774345376087894e-03
	1.558960751289751e-15
	1.800000000000000e+00
	8.063999999999999e-01
	0.000000000000000e+00

 12	1.960000000000000e-12
	2.239269044880381e-04
	2.002450853576177e-04
	7.357386597649676e-12
	2.772788434520464e-13
	3.830963931713881e-03
	2.016735735180315e-03
	2.036869117908743e-03
	1.833762142407741e+00
	1.815634177444548e+00
	1.815623607198897e+00
	1.801501764529677e+00
	-2.405557065765519e-03
	1.258876044017754e-03
	4.316656082060943e-15
	1.800000000000000e+00
	1.728000000000000e+00
	0.000000000000000e+00

 13	2.000000000000000e-12
	2.228024951124361e-04
	2.163248490597818e-04
	1.108140999199069e-12
	4.065566114406755e-14
	3.423525129004790e-03
	1.680357421959988e-03
	1.702601803621589e-03
	1.833138281630315e+00
	1.816740387903476e+00
	1.816731424102338e+00
	1.801519698391961e+00
	-3.365724643987433e-03
	1.849813428931313e-03
	1.331831238175762e-14
	1.800000000000000e+00
	1.800000000000000e+00
	0.000000000000000e+00

 14	2.080000000000000e-12
	2.227951092024488e-04
	2.162668834542428e-04
	1.319924043027999e-12
	4.870913325792635e-14
	2.199564541726581e-04
	1.805807706045937e-04
	2.263178038923255e-04
	1.808569429543827e+00
	1.806937602569243e+00
	1.806939508914023e+00
	1.801493607129239e+00
	-2.396168972490353e-04
	3.419102030193244e-04
	2.142271684482319e-15
	1.800000000000000e+00
	1.800000000000000e+00
	0.000000000000000e+00

 15	2.240000000000001e-12
	2.227944701303485e-04
	2.162470984094735e-04
	1.411804958537850e-12
	5.225303199889250e-14
	-1.749373110732089e-04
	-1.417249558675754e-04
	-1.642944138179656e-04
	1.796727313394632e+00
	1.798135512336370e+00
	1.798142082069723e+00
	1.801451144190084e+00
	1.256347615725597e-04
	-1.307741581264565e-04
	3.502947528533995e-15
	1.800000000000000e+00
	1.800000000000000e+00
	0.000000000000000e+00

 16	2.560000000000003e-12
	2.227940389981662e-04
	2.162610994361641e-04
	1.285862086871524e-12
	4.752464931300798e-14
	1.564974510221001e-04
	1.228737989848044e-04
	1.397206335494299e-04
	1.802215758900228e+00
	1.800939089529852e+00
	1.800942467847201e+00
	1.801384583326782e+00
	-9.924048915201447e-05
	8.841010539839544e-05
	-3.060573560402123e-15
	1.800000000000000e+00
	1.800000000000000e+00
	0.000000000000000e+00

 17	3.200000000000007e-12
	2.227925140073765e-04
	2.162436312840774e-04
	1.190963353375127e-12
	4.405882333126153e-14
	-1.483825460288132e-04
	-1.173344831348656e-04
	-1.288862211235442e-04
	1.798136997770539e+00
	1.799338049410363e+00
	1.799344063778750e+00
	1.801244869083829e+00
	8.929729861304706e-05
	-7.454227870162811e-05
	8.795018377049258e-16
	1.800000000000000e+00
	1.800000000000000e+00
	0.000000000000000e+00

 18	4.480000000000015e-12
	2.227900719051032e-04
	2.162507918323644e-04
	8.948860257221585e-13
	3.307142028416291e-14
	1.443191276316019e-04
	1.116492029358332e-04
	1.236723272189061e-04
	1.801708272052189e+00
	1.800533730868400e+00
	1.800537339824650e+00
	1.800969527860561e+00
	-8.504917319072453e-05
	6.817276714521370e-05
	4.171191302380700e-15
	1.800000000000000e+00
	1.800000000000000e+00
	0.000000000000000e+00

 19	7.040000000000030e-12
	2.227846007950178e-04
	2.162245662298795e-04
	3.888781925276894e-13
	1.437919506009033e-14
	-1.425482708243258e-04
	-1.119479387938225e-04
	-1.212397414810223e-04
	1.798354435531464e+00
	1.799505496147838e+00
	1.799511407308322e+00
	1.800415675603106e+00
	8.296337174758883e-05
	-6.587179548844802e-05
	-5.551966391237773e-16
	1.800000000000000e+00
	1.800000000000000e+00
	0.000000000000000e+00

 20	1.216000000000006e-11
	2.227742303967216e-04
	2.162119173414794e-04
	6.170335550392334e-13
	2.279257577975304e-14
	1.414552818015458e-04
	1.090060783602198e-04
	1.199348299786890e-04
	1.801607431578098e+00
	1.800457650383433e+00
	1.800461295615982e+00
	1.799310907620562e+00
	-8.206669317431210e-05
	6.416039476597746e-05
	2.198029322301228e-15
	1.800000000000000e+00
	1.800000000000000e+00
	0.000000000000000e+00

 21	2.240000000000012e-11
	2.227528992813863e-04
	2.161471764458575e-04
	2.606780760300282e-12
	9.637378035066749e-14
	-1.411466388289895e-04
	-1.106477287938462e-04
	-1.194027205370662e-04
	1.798403356835989e+00
	1.799542101106268e+00
	1.799547987964923e+00
	1.797099130772439e+00
	8.148225086463589e-05
	-6.391385601567379e-05
	-3.636271784981243e-15
	1.800000000000000e+00
	1.800000000000000e+00
	0.000000000000000e+00

 22	4.288000000000024e-11
	2.227107380379403e-04
	2.160569408671462e-04
	6.120688573430167e-12
	2.261324445955333e-13
	1.407301104076405e-04
	1.083445257982508e-04
	1.190069835046950e-04
	1.801583645839382e+00
	1.800439953694845e+00
	1.800443578503754e+00
	1.792679678077338e+00
	-8.134153653985408e-05
	6.320986968333386e-05
	2.678179265814748e-15
	1.800000000000000e+00
	1.800000000000000e+00
	0.000000000000000e+00

 23	8.384000000000048e-11
	2.226255476471332e-04
	2.158372267496935e-04
	1.255488147816296e-11
	4.643216128212857e-13
	-1.408380273281019e-04
	-1.103452606023174e-04
	-1.189670815613854e-04
	1.798415396653419e+00
	1.799551034530049e+00
	1.799556887444415e+00
	1.783844501420212e+00
	8.112377368628122e-05
	-6.343541793718543e-05
	-3.778914674397709e-15
	1.800000000000000e+00
	1.800000000000000e+00
	0.000000000000000e+00

 24	1.657600000000010e-10
	2.224545774892317e-04
	2.154366836313281e-04
	2.067153361513786e-11
	7.642650215639915e-13
	1.404769660038637e-04
	1.081418112758511e-04
	1.187397816739187e-04
	1.801577870057429e+00
	1.800435734745252e+00
	1.800439269608037e+00
	1.766201867008689e+00
	-8.115965794770324e-05
	6.297947139621840e-05
	-1.199141578812598e-15
	1.800000000000000e+00
	1.800000000000000e+00
	0.000000000000000e+00

 25	2.657600000000010e-10
	2.222432333711730e-04
	2.149182607688613e-04
	2.685609977591551e-11
	9.943012435504712e-13
	-1.408359830385086e-04
	-1.103013408345725e-04
	-1.188809649187078e-04
	1.798419070488662e+00
	1.799553834355514e+00
	1.799559585643785e+00
	1.744709451656271e+00
	8.101617801054052e-05
	-6.328764266250175e-05
	2.791641446681830e-15
	1.800000000000000e+00
	1.800000000000000e+00
	0.000000000000000e+00

 26	3.657600000000010e-10
	2.220298271452760e-04
	2.144253488212721e-04
	2.945890088397976e-11
	1.090467166908969e-12
	1.402812756360034e-04
	1.080003736878923e-04
	1.185652797809852e-04
	1.801574741326272e+00
	1.800433543069480e+00
	1.800436934023226e+00
	1.723269120554972e+00
	-8.106116021723347e-05
	6.285729712196542e-05
	-1.554097088106617e-15
	1.800000000000000e+00
	1.800000000000000e+00
	0.000000000000000e+00

 27	4.657600000000010e-10
	2.218133896724282e-04
	2.139056721618484e-04
	3.288165673553542e-11
	1.218911252960212e-12
	-1.408259794727179e-04
	-1.102579786343510e-04
	-1.187993704504462e-04
	1.798422333254462e+00
	1.799556325940557e+00
	1.799561986892410e+00
	1.701877732456315e+00
	8.091889451345906e-05
	-6.315578800197841e-05
	7.563220713504692e-16
	1.800000000000000e+00
	1.800000000000000e+00
	0.000000000000000e+00

 28	5.657600000000009e-10
	2.215947316687099e-04
	2.134114201522486e-04
	3.455597057099310e-11
	1.280776863325839e-12
	1.401122667585052e-04
	1.078719231680727e-04
	1.184042193295517e-04
	1.801571611532610e+00
	1.800431362476360e+00
	1.800434601452286e+00
	1.680538508784440e+00
	-8.096306388510901e-05
	6.273546732771251e-05
	1.231896766399395e-15
	1.800000000000000e+00
	1.800000000000000e+00
	0.000000000000000e+00

 29	6.657600000000009e-10
	2.213727976624422e-04
	2.128902732869548e-04
	3.798492883866804e-11
	1.409948849058382e-12
	-1.407924286901294e-04
	-1.102026488215346e-04
	-1.187060805842444e-04
	1.798425571876974e+00
	1.799558778883485e+00
	1.799564371795183e+00
	1.659248383878824e+00
	8.082170836347297e-05
	-6.302528094437321e-05
	-5.819457278398313e-15
	1.800000000000000e+00
	1.800000000000000e+00
	0.000000000000000e+00

 30	7.657600000000009e-10
	2.211484622792213e-04
	2.123944525536721e-04
	3.965936769398360e-11
	1.471909832823659e-12
	1.399636807641724e-04
	1.077533193546374e-04
	1.182534513435084e-04
	1.801568493111954e+00
	1.800429199373536e+00
	1.800432278744468e+00
	1.638010515655107e+00
	-8.086522697449940e-05
	6.261428256593149e-05
	4.354581135241307e-15
	1.800000000000000e+00
	1.800000000000000e+00
	0.000000000000000e+00

 31	8.657600000000008e-10
	2.209205830021683e-04
	2.118715973368801e-04
	4.342305855205814e-11
	1.614052526741076e-12
	-1.407409763805794e-04
	-1.101381694195335e-04
	-1.186039207747276e-04
	1.798428790697232e+00
	1.799561197379923e+00
	1.799566742630732e+00
	1.616821925063189e+00
	8.072469542779878e-05
	-6.289596898589878e-05
	2.487312249612253e-15
	1.800000000000000e+00
	1.800000000000000e+00
	0.000000000000000e+00

 32	9.657600000000008e-10
	2.206900959444937e-04
	2.113739564158735e-04
	4.523620089239487e-11
	1.681274543012431e-12
	1.398304286484488e-04
	1.076420110082845e-04
	1.181104312694692e-04
	1.801565386811498e+00
	1.800427053717920e+00
	1.800429966252002e+00
	1.595685716284868e+00
	-8.076761494158700e-05
	6.249374404099228e-05
	1.719256654359944e-15
	1.800000000000000e+00
	1.800000000000000e+00
	0.000000000000000e+00

 33	1.065760000000001e-09
	2.204557704389734e-04
	2.108491305304430e-04
	4.942932449443773e-11
	1.840009526327120e-12
	-1.406761796482911e-04
	-1.100668129833438e-04
	-1.184951695679239e-04
	1.798431991121506e+00
	1.799563583852135e+00
	1.799569100123393e+00
	1.574598994062192e+00
	8.062787069804639e-05
	-6.276777239122566e-05
	-1.705114592272586e-15
	1.800000000000000e+00
	1.800000000000000e+00
	0.000000000000000e+00

 34	1.165760000000001e-09
	2.202186012473242e-04
	2.103493920314692e-04
	5.142915358027135e-11
	1.914310609860525e-12
	1.397084368722142e-04
	1.075359545726859e-04
	1.179731222905557e-04
	1.801562292613637e+00
	1.800424925097452e+00
	1.800427663945221e+00
	1.553564814208654e+00
	-8.067022087843488e-05
	6.237383914076133e-05
	4.622199077343936e-15
	1.800000000000000e+00
	1.800000000000000e+00
	0.000000000000000e+00

 35	1.265760000000001e-09
	2.199772681188419e-04
	2.098223054770227e-04
	5.611472951576622e-11
	2.092111043333941e-12
	-1.406016494468594e-04
	-1.099903786102109e-04
	-1.183816324331488e-04
	1.798435174095620e+00
	1.799565940300562e+00
	1.799571444766717e+00
	1.532580362013720e+00
	8.053123729902444e-05
	-6.264062617411525e-05
	3.719276355130955e-15
	1.800000000000000e+00
	1.800000000000000e+00
	0.000000000000000e+00

 36	1.365760000000001e-09
	2.197328211593238e-04
	2.093201622258678e-04
	5.833278521729655e-11
	2.174708659631807e-12
	1.395945089982094e-04
	1.074335448829129e-04
	1.178399261445273e-04
	1.801559210354028e+00
	1.800422813042107e+00
	1.800425371721581e+00
	1.511648649623748e+00
	-8.057304223709299e-05
	6.225455284081249e-05
	2.544266744985632e-16
	1.800000000000000e+00
	1.800000000000000e+00
	0.000000000000000e+00

 37	1.465760000000001e-09
	2.194838487017123e-04
	2.087904931224939e-04
	6.356989460744592e-11
	2.373928008349635e-12
	-1.405201871884012e-04
	-1.099102602405544e-04
	-1.182647100677122e-04
	1.798438340391659e+00
	1.799568268476640e+00
	1.799573776966892e+00
	1.490766940160649e+00
	8.043479626887646e-05
	-6.251447376115493e-05
	-2.338735470883797e-15
	1.800000000000000e+00
	1.800000000000000e+00
	0.000000000000000e+00

 38	1.565760000000001e-09
	2.192314523249990e-04
	2.082856035842721e-04
	6.603447076847682e-11
	2.465929512755373e-12
	1.394861914915250e-04
	1.073335480978907e-04
	1.177096160238914e-04
	1.801556139834960e+00
	1.800420717081958e+00
	1.800423089462311e+00
	1.469938206684699e+00
	-8.047607709692937e-05
	6.213586996928200e-05
	3.537705102008102e-15
	1.800000000000000e+00
	1.800000000000000e+00
	0.000000000000000e+00

 39	1.665760000000001e-09
	2.189741266099813e-04
	2.077529931978208e-04
	7.188440053817228e-11
	2.689032600070778e-12
	-1.404339158039003e-04
	-1.098275121171458e-04
	-1.181454639272877e-04
	1.798441490681880e+00
	1.799570569943758e+00
	1.799576097079753e+00
	1.449159788097381e+00
	8.033854832536421e-05
	-6.238926472690309e-05
	-3.942133264652403e-15
	1.800000000000000e+00
	1.800000000000000e+00
	0.000000000000000e+00

 40	1.765760000000001e-09
	2.187130200370387e-04
	2.072449760414869e-04
	7.462400058658191e-11
	2.791565051239048e-12
	1.393816464279221e-04
	1.072350381191198e-04
	1.175812729298732e-04
	1.801553080854008e+00
	1.800418636762218e+00
	1.800420817046708e+00
	1.428434623007052e+00
	-8.037932357863817e-05
	6.201777576286815e-05
	4.811617243690152e-15
	1.800000000000000e+00
	1.800000000000000e+00
	0.000000000000000e+00

 41	1.865760000000001e-09
	2.184465304604327e-04
	2.067090228592597e-04
	8.115223508508084e-11
	3.041206181210070e-12
	-1.403444025838139e-04
	-1.097429101101863e-04
	-1.180246776464809e-04
	1.798444625566887e+00
	1.799572846110987e+00
	1.799578405424901e+00
	1.407760124730582e+00
	8.024249413166220e-05
	-6.226495368011342e-05
	-1.526986104563848e-15
	1.800000000000000e+00
	1.800000000000000e+00
	0.000000000000000e+00

 42	1.965760000000001e-09
	2.181758478144432e-04
	2.061974504643657e-04
	8.419678275865173e-11
	3.155463195657313e-12
	1.392795336508228e-04
	1.071373377509190e-04
	1.174542267506697e-04
	1.801550033212878e+00
	1.800416571647893e+00
	1.800418554356520e+00
	1.387139202216298e+00
	-8.028277983962694e-05
	6.190025609065231e-05
	-1.291725244562808e-18
	1.800000000000000e+00
	1.800000000000000e+00
	0.000000000000000e+00

 43	2.065760000000001e-09
	2.178992694356500e-04
	2.056577030938345e-04
	9.147391832487285e-11
	3.434525050024780e-12
	-1.402527714374107e-04
	-1.096570077335357e-04
	-1.179029131688242e-04
	1.798447745590287e+00
	1.799575098256658e+00
	1.799580702293064e+00
	1.366569342539246e+00
	8.014663427954325e-05
	-6.214149944661074e-05
	3.135098907233345e-15
	1.800000000000000e+00
	1.800000000000000e+00
	0.000000000000000e+00

 44	2.165760000000001e-09
	2.176180201609475e-04
	2.051420937404892e-04
	9.485530146671114e-11
	3.561789182629473e-12
	1.391789045171465e-04
	1.070399656717900e-04
	1.173280031340789e-04
	1.801546996720474e+00
	1.800414521325250e+00
	1.800416301277453e+00
	1.346053430031927e+00
	-8.018644414275970e-05
	6.178329750206046e-05
	7.566545317822665e-18
	1.800000000000000e+00
	1.800000000000000e+00
	0.000000000000000e+00

 45	2.265760000000001e-09
	2.173302919657091e-04
	2.045980423368674e-04
	1.029576138453000e-10
	3.873409510573120e-12
	-1.401598026912962e-04
	-1.095701859105475e-04
	-1.177805606464189e-04
	1.798450851248162e+00
	1.799577327546675e+00
	1.799582987950861e+00
	1.325589025609359e+00
	8.005096924558080e-05
	-6.201886449019867e-05
	1.587496020733327e-15
	1.800000000000000e+00
	1.800000000000000e+00
	0.000000000000000e+00

 46	2.365760000000002e-09
	2.170373366339721e-04
	2.040778507435404e-04
	1.067099866451677e-10
	4.015065944239363e-12
	1.390791088147975e-04
	1.069425900113466e-04
	1.172022769459184e-04
	1.801543971193985e+00
	1.800412485402121e+00
	1.800414057699695e+00
	1.305178994381431e+00
	-8.009031490514881e-05
	6.166688723574509e-05
	1.241140013436308e-15
	1.800000000000000e+00
	1.800000000000000e+00
	0.000000000000000e+00

 47	2.465760000000002e-09
	2.167372345695504e-04
	2.035289165842676e-04
	1.157198628163396e-10
	4.362659905465532e-12
	-1.400660191711782e-04
	-1.094826958574280e-04
	-1.176578814812437e-04
	1.798453942996018e+00
	1.799579535049433e+00
	1.799585262644298e+00
	1.284820971978672e+00
	7.995549936349153e-05
	-6.189701439396345e-05
	3.281276041622230e-15
	1.800000000000000e+00
	1.800000000000000e+00
	0.000000000000000e+00

 48	2.565760000000002e-09
	2.164312547446679e-04
	2.030035223567293e-04
	1.198798423701224e-10
	4.520206501484264e-12
	1.389797157549897e-04
	1.068449889903785e-04
	1.170768327658336e-04
	1.801540956459236e+00
	1.800410463507741e+00
	1.800411823518060e+00
	1.264517810146165e+00
	-7.999439072349529e-05
	6.155101321958512e-05
	6.214710380157955e-16
	1.800000000000000e+00
	1.800000000000000e+00
	0.000000000000000e+00

 49	2.665760000000002e-09
	2.161173579905811e-04
	2.024490450635778e-04
	1.298861457921905e-10
	4.907487251200615e-12
	-1.399717580345346e-04
	-1.093946948112824e-04
	-1.175350442419492e-04
	1.798457021254282e+00
	1.799581721748343e+00
	1.799587526601538e+00
	1.244267220981041e+00
	7.986022480952376e-05
	-6.177591749434441e-05
	3.735779521558784e-16
	1.800000000000000e+00
	1.800000000000000e+00
	0.000000000000000e+00

 50	2.765760000000002e-09
	2.157968183687725e-04
	2.019177384812555e-04
	1.344929509515958e-10
	5.082542749183501e-12
	1.388804491881797e-04
	1.067470187059317e-04
	1.169515324948889e-04
	1.801537952350728e+00
	1.800408455292439e+00
	1.800409598631994e+00
	1.224072049325240e+00
	-7.989867038799990e-05
	6.143566407601497e-05
	6.455874212768411e-15
	1.800000000000000e+00
	1.800000000000000e+00
	0.000000000000000e+00

 51	2.865760000000002e-09
	2.154674667690974e-04
	2.013569602308465e-04
	1.455913425514270e-10
	5.513541122072658e-12
	-1.398772285898173e-04
	-1.093062747118777e-04
	-1.174121535739516e-04
	1.798460086412856e+00
	1.799583888552518e+00
	1.799589780035197e+00
	1.203930086487684e+00
	7.976514559076689e-05
	-6.165554449388821e-05
	3.514936856385906e-15
	1.800000000000000e+00
	1.800000000000000e+00
	0.000000000000000e+00

 52	2.965760000000002e-09
	2.151305671744984e-04
	2.008189246095217e-04
	1.506868918406576e-10
	5.707852115293779e-12
	1.387811364273118e-04
	1.066485877638314e-04
	1.168262897668003e-04
	1.801534958711581e+00
	1.800406460427304e+00
	1.800407382945532e+00
	1.183844177648548e+00
	-7.980315289647756e-05
	6.132082907583936e-05
	5.226328809830594e-16
	1.800000000000000e+00
	1.800000000000000e+00
	0.000000000000000e+00

 53	3.065760000000002e-09
	2.147838070018691e-04
	2.002509704532775e-04
	1.629801111365247e-10
	6.186935592066080e-12
	-1.397825570817915e-04
	-1.092174843147787e-04
	-1.172892725926215e-04
	1.798463138834988e+00
	1.799586036306074e+00
	1.799592023144299e+00
	1.163812197234677e+00
	7.967026152700887e-05
	-6.153586821255885e-05
	5.711776097396242e-16
	1.800000000000000e+00
	1.800000000000000e+00
	0.000000000000000e+00

 54	3.165760000000002e-09
	2.144284209167069e-04
	1.997052600638552e-04
	1.686090836316565e-10
	6.402382417509559e-12
	1.386816693555018e-04
	1.065496381114223e-04
	1.167010505013666e-04
	1.801531975393466e+00
	1.800404478603946e+00
	1.800405176367237e+00
	1.143836999011345e+00
	-7.970783747837220e-05
	6.120649818797119e-05
	2.718188443561831e-15
	1.800000000000000e+00
	1.800000000000000e+00
	0.000000000000000e+00

 55	3.265760000000002e-09
	2.140619350609754e-04
	1.991291131723748e-04
	1.822071860216687e-10
	6.934273233832477e-12
	-1.396878200740716e-04
	-1.091283455352768e-04
	-1.171664395751053e-04
	1.798466178860655e+00
	1.799588165796337e+00
	1.799594256115981e+00
	1.123916545818928e+00
	7.957557221744355e-05
	-6.141686327154616e-05
	-2.620516650897464e-16
	1.800000000000000e+00
	1.800000000000000e+00
	0.000000000000000e+00

 56	3.365760000000002e-09
	2.136855300771114e-04
	1.985746253323848e-04
	1.884170426958805e-10
	7.172874666877455e-12
	1.385819759119470e-04
	1.064501311365576e-04
	1.165757786469922e-04
	1.801529002256586e+00
	1.800402509534438e+00
	1.800402978810188e+00
	1.104053709555663e+00
	-7.961272363814521e-05
	6.109266201015373e-05
	2.811349362265595e-15
	1.800000000000000e+00
	1.800000000000000e+00
	0.000000000000000e+00

 57	3.465760000000002e-09
	2.132965471967345e-04
	1.979890955480532e-04
	2.034375839622852e-10
	7.762666719312005e-12
	-1.395930685620401e-04
	-1.090388650673657e-04
	-1.170436800173896e-04
	1.798469206809590e+00
	1.799590277761244e+00
	1.799596479127014e+00
	1.084246548475197e+00
	7.948107698234509e-05
	-6.129850589253749e-05
	1.577978335021504e-15
	1.800000000000000e+00
	1.800000000000000e+00
	0.000000000000000e+00

 58	3.565760000000002e-09
	2.128960808972575e-04
	1.974245349877511e-04
	2.102785429416441e-10
	8.026583195736532e-12
	1.384819996331803e-04
	1.063500378977003e-04
	1.164504459508296e-04
	1.801526039169734e+00
	1.800400552951483e+00
	1.800400790191987e+00
	1.064497963847604e+00
	-7.951781122970985e-05
	6.097931182580396e-05
	2.632002841178706e-15
	1.800000000000000e+00
	1.800000000000000e+00
	0.000000000000000e+00

 59	3.665760000000002e-09
	2.124812557959688e-04
	1.968282184537439e-04
	2.268466980589560e-10
	8.679757224214221e-12
	-1.394983452764741e-04
	-1.089490424776827e-04
	-1.169210152867992e-04
	1.798472222984055e+00
	1.799592372896179e+00
	1.799598692345216e+00
	1.044806118473180e+00
	7.938677476607118e-05
	-6.118077366679131e-05
	-2.301248333737163e-15
	1.800000000000000e+00
	1.800000000000000e+00
	0.000000000000000e+00

 60	3.765760000000003e-09
	2.120530378076775e-04
	1.962520513187654e-04
	2.343716538069898e-10
	8.971292161922583e-12
	1.383816846815287e-04
	1.062493322375615e-04
	1.163250244724436e-04
	1.801523086010502e+00
	1.800398608608951e+00
	1.800398610434857e+00
	1.025173956449058e+00
	-7.942310057879005e-05
	6.086643959868354e-05
	4.662061294874670e-15
	1.800000000000000e+00
	1.800000000000000e+00
	0.000000000000000e+00

 61	3.865760000000003e-09
	2.116082919215234e-04
	1.956432780618405e-04
	2.526202531051692e-10
	9.693728499944388e-12
	-1.394036978094795e-04
	-1.088588760476219e-04
	-1.167984691857837e-04
	1.798475227671469e+00
	1.799594451860472e+00
	1.799600895930765e+00
	1.005599756979390e+00
	7.929266398062904e-05
	-6.106364533309261e-05
	1.921053360197334e-15
	1.800000000000000e+00
	1.800000000000000e+00
	0.000000000000000e+00

 62	3.965760000000003e-09
	2.111477987406696e-04
	1.950536718360586e-04
	2.608846259217365e-10
	1.001532712750380e-11
	1.382809636702233e-04
	1.061479854856869e-04
	1.161994804956591e-04
	1.801520142665663e+00
	1.800396676282860e+00
	1.800396439465820e+00
	9.860865233706825e-01
	-7.932859267945190e-05
	6.075403799776780e-05
	2.439811065446705e-15
	1.800000000000000e+00
	1.800000000000000e+00
	0.000000000000000e+00

 63	4.065760000000003e-09
	2.106681045326398e-04
	1.944304368725783e-04
	2.809540868600272e-10
	1.081331508104729e-11
	-1.393091902886185e-04
	-1.087683676672789e-04
	-1.166760737900058e-04
	1.798478221146997e+00
	1.799596515283813e+00
	1.799603090037508e+00
	9.666326666264794e-01
	7.919874225688953e-05
	-6.094710060544628e-05
	-2.807747354657397e-15
	1.800000000000000e+00
	1.800000000000000e+00
	0.000000000000000e+00

 64	4.165760000000003e-09
	2.101697274455732e-04
	1.938251809101260e-04
	2.900155845578588e-10
	1.116755996911485e-11
	1.381797454865308e-04
	1.060459614229597e-04
	1.160737684391988e-04
	1.801517209031805e+00
	1.800394755772999e+00
	1.800394277217002e+00
	9.472412695526671e-01
	-7.923428950657540e-05
	6.064210047007634e-05
	1.974012401158515e-15
	1.800000000000000e+00
	1.800000000000000e+00
	0.000000000000000e+00

 65	4.265760000000003e-09
	2.096488127256890e-04
	1.931850524963463e-04
	3.120537111269921e-10
	1.204780258276480e-11
	-1.392149164788479e-04
	-1.086775281353537e-04
	-1.165538760006545e-04
	1.798481203676205e+00
	1.799598563772872e+00
	1.799605274814300e+00
	9.279108950251358e-01
	7.910500605087429e-05
	-6.083111990662360e-05
	2.543798335765800e-15
	1.800000000000000e+00
	1.800000000000000e+00
	0.000000000000000e+00

 66	4.365760000000003e-09
	2.091055094706234e-04
	1.925614514580506e-04
	3.219719787039336e-10
	1.243740479199487e-11
	1.380779000555271e-04
	1.059432100833797e-04
	1.159478232372979e-04
	1.801514285016315e+00
	1.800392846905410e+00
	1.800392123626119e+00
	9.086447309139438e-01
	-7.914019451087753e-05
	6.053062130284559e-05
	2.560081697143817e-15
	1.800000000000000e+00
	1.800000000000000e+00
	0.000000000000000e+00

 67	4.465760000000003e-09
	2.085354455861402e-04
	1.919014471579862e-04
	3.461335919227798e-10
	1.340701734592517e-11
	-1.391210175887879e-04
	-1.085863843795255e-04
	-1.164319464494057e-04
	1.798484175517927e+00
	1.799600597918478e+00
	1.799607450406445e+00
	8.894415183269845e-01
	7.901145002166816e-05
	-6.071568420118467e-05
	1.732927766128628e-15
	1.800000000000000e+00
	1.800000000000000e+00
	0.000000000000000e+00

 68	4.565760000000003e-09
	2.079382512785995e-04
	1.912561759985207e-04
	3.569697164858398e-10
	1.383480170400119e-11
	1.379752363875480e-04
	1.058396587171522e-04
	1.158215493616354e-04
	1.801511370538837e+00
	1.800390949536077e+00
	1.800389978637199e+00
	8.703045829783917e-01
	-7.904631340106885e-05
	6.041959574076827e-05
	4.075359265277769e-16
	1.800000000000000e+00
	1.800000000000000e+00
	0.000000000000000e+00

 69	4.665760000000003e-09
	2.073088701180856e-04
	1.905725927153767e-04
	3.834160672903518e-10
	1.490130169807784e-11
	-1.390277088710623e-04