Title: **.subckt tb_inverter
Date: Tue Mar  2 13:28:25  2021
Plotname: DC transfer characteristic
Flags: real
No. Variables: 18
No. Points: 181
Variables:
	0	v(v-sweep)	voltage
	1	@m.x1.xm1.msky130_fd_pr__nfet_01v8[gm]	admittance
	2	i(@m.x1.xm1.msky130_fd_pr__nfet_01v8[id])	current
	3	@m.x1.xm2.msky130_fd_pr__pfet_01v8[gm]	admittance
	4	i(@m.x1.xm2.msky130_fd_pr__pfet_01v8[id])	current
	5	v(m.x1.xm1.msky130_fd_pr__nfet_01v8#body)	voltage
	6	v(m.x1.xm1.msky130_fd_pr__nfet_01v8#dbody)	voltage
	7	v(m.x1.xm1.msky130_fd_pr__nfet_01v8#sbody)	voltage
	8	v(m.x1.xm2.msky130_fd_pr__pfet_01v8#body)	voltage
	9	v(m.x1.xm2.msky130_fd_pr__pfet_01v8#dbody)	voltage
	10	v(m.x1.xm2.msky130_fd_pr__pfet_01v8#sbody)	voltage
	11	v(out)	voltage
	12	i(v1)	current
	13	i(v2)	current
	14	i(v3)	current
	15	v(vdd)	voltage
	16	v(vin)	voltage
	17	v(vss)	voltage
Values:
 0	0.000000000000000e+00
	1.541354615836907e-12
	5.784244319753860e-14
	1.076665660467984e-12
	1.644848423659366e-12
	2.250948299125324e-11
	5.627162324707105e-11
	1.125474149534052e-11
	1.800000000000000e+00
	1.800000000000000e+00
	1.800000000000000e+00
	1.799999996667856e+00
	0.000000000000000e+00
	-1.856292897173262e-12
	2.266500770873613e-15
	1.800000000000000e+00
	0.000000000000000e+00
	0.000000000000000e+00

 1	1.000000000000000e-02
	2.011985906529750e-12
	7.550477256547623e-14
	1.251943873761888e-12
	1.871882200272494e-12
	2.250976068265506e-11
	5.627176208064667e-11
	1.125488034104168e-11
	1.800000000000000e+00
	1.800000000000000e+00
	1.800000000000000e+00
	1.799999996182854e+00
	0.000000000000000e+00
	-1.868727395049063e-12
	5.256656469678611e-15
	1.800000000000000e+00
	1.000000000000000e-02
	0.000000000000000e+00

 2	2.000000000000000e-02
	2.626304133531226e-12
	9.855998769166231e-14
	1.298667414368101e-12
	1.900601511321368e-12
	2.251021656990567e-11
	5.627199002215034e-11
	1.125510828466740e-11
	1.800000000000000e+00
	1.800000000000000e+00
	1.800000000000000e+00
	1.799999996098006e+00
	0.000000000000000e+00
	-1.898925461318868e-12
	3.808240085772000e-16
	1.800000000000000e+00
	2.000000000000000e-02
	0.000000000000000e+00

 3	3.000000000000000e-02
	3.428171161023285e-12
	1.286545430438083e-13
	1.348064572747085e-12
	1.931310537827970e-12
	2.251075876593265e-11
	5.627226111790034e-11
	1.125537938268137e-11
	1.800000000000000e+00
	1.800000000000000e+00
	1.800000000000000e+00
	1.799999996007486e+00
	0.000000000000000e+00
	-1.927347170749272e-12
	2.075357726577900e-15
	1.800000000000000e+00
	3.000000000000000e-02
	0.000000000000000e+00

 4	4.000000000000000e-02
	4.474834831106255e-12
	1.679374749257241e-13
	1.403549471948059e-12
	1.968630164346363e-12
	2.251146650372361e-11
	5.627261498414630e-11
	1.125573325157749e-11
	1.800000000000000e+00
	1.800000000000000e+00
	1.800000000000000e+00
	1.799999995901530e+00
	0.000000000000000e+00
	-1.966427021216077e-12
	2.306748599922909e-15
	1.800000000000000e+00
	4.000000000000000e-02
	0.000000000000000e+00

 5	5.000000000000000e-02
	5.841012548364546e-12
	2.192137745808387e-13
	1.471581832768228e-12
	2.020972942673009e-12
	2.251239031904581e-11
	5.627307688832175e-11
	1.125619515923942e-11
	1.800000000000000e+00
	1.800000000000000e+00
	1.800000000000000e+00
	1.799999995762138e+00
	0.000000000000000e+00
	-2.017941369558685e-12
	2.105652455167015e-15
	1.800000000000000e+00
	5.000000000000000e-02
	0.000000000000000e+00

 6	6.000000000000000e-02
	7.624219831130089e-12
	2.861445464617070e-13
	1.551226402371462e-12
	2.086092740693011e-12
	2.251359617206383e-11
	5.627367981060830e-11
	1.125679808574952e-11
	1.800000000000000e+00
	1.800000000000000e+00
	1.800000000000000e+00
	1.799999995593283e+00
	0.000000000000000e+00
	-2.083666572616494e-12
	3.359455315166897e-15
	1.800000000000000e+00
	6.000000000000000e-02
	0.000000000000000e+00

 7	7.000000000000001e-02
	9.951722994275566e-12
	3.735082132992183e-13
	1.651202226030216e-12
	2.174611588737185e-12
	2.251517015271068e-11
	5.627446679538950e-11
	1.125758507607436e-11
	1.800000000000000e+00
	1.800000000000000e+00
	1.800000000000000e+00
	1.799999995371652e+00
	0.000000000000000e+00
	-2.170708057747106e-12
	3.744596137291482e-15
	1.800000000000000e+00
	7.000000000000001e-02
	0.000000000000000e+00

 8	8.000000000000000e-02
	1.298961041865046e-11
	4.875413723608922e-13
	1.774046613814976e-12
	2.288274567645192e-12
	2.251722462227775e-11
	5.627549402318567e-11
	1.125861231085974e-11
	1.800000000000000e+00
	1.800000000000000e+00
	1.800000000000000e+00
	1.799999995092231e+00
	0.000000000000000e+00
	-2.286171252308122e-12
	2.396739280592960e-15
	1.800000000000000e+00
	8.000000000000000e-02
	0.000000000000000e+00

 9	9.000000000000000e-02
	1.695462710956639e-11
	6.363835698932370e-13
	1.929807817211999e-12
	2.438122757374701e-12
	2.251990622618597e-11
	5.627683481607477e-11
	1.125995311281626e-11
	1.800000000000000e+00
	1.800000000000000e+00
	1.800000000000000e+00
	1.799999994729728e+00
	0.000000000000000e+00
	-2.433608869978343e-12
	3.908583117466477e-15
	1.800000000000000e+00
	9.000000000000000e-02
	0.000000000000000e+00

 10	9.999999999999999e-02
	2.212961301474952e-11
	8.306576435868143e-13
	2.127479073991592e-12
	2.632933899566679e-12
	2.252340634999845e-11
	5.627858486630790e-11
	1.126170317472565e-11
	1.800000000000000e+00
	1.800000000000000e+00
	1.800000000000000e+00
	1.799999994262931e+00
	0.000000000000000e+00
	-2.630784479151771e-12
	1.147052357110088e-15
	1.800000000000000e+00
	9.999999999999999e-02
	0.000000000000000e+00

 11	1.100000000000000e-01
	2.888364057380712e-11
	1.084226906457873e-12
	2.380659660754092e-12
	2.886276373975290e-12
	2.252797476098616e-11
	5.628086905670838e-11
	1.126398738022362e-11
	1.800000000000000e+00
	1.800000000000000e+00
	1.800000000000000e+00
	1.799999993659362e+00
	0.000000000000000e+00
	-2.883027150346607e-12
	2.656380170280038e-15
	1.800000000000000e+00
	1.100000000000000e-01
	0.000000000000000e+00

 12	1.200000000000000e-01
	3.769827903633050e-11
	1.415182987680772e-12
	2.708248446375087e-12
	3.216813633018960e-12
	2.253393740548435e-11
	5.628385035932063e-11
	1.126696870247807e-11
	1.800000000000000e+00
	1.800000000000000e+00
	1.800000000000000e+00
	1.799999992874104e+00
	0.000000000000000e+00
	-3.213429522475053e-12
	3.448594652748889e-15
	1.800000000000000e+00
	1.200000000000000e-01
	0.000000000000000e+00

 13	1.300000000000000e-01
	4.920184534621163e-11
	1.847134487796243e-12
	3.136249902916825e-12
	3.649839341728440e-12
	2.254171962580892e-11
	5.628774144376858e-11
	1.127085981264736e-11
	1.800000000000000e+00
	1.800000000000000e+00
	1.800000000000000e+00
	1.799999991845814e+00
	0.000000000000000e+00
	-3.646860591288714e-12
	2.280314252372530e-15
	1.800000000000000e+00
	1.300000000000000e-01
	0.000000000000000e+00

 14	1.400000000000000e-01
	6.421406385258783e-11
	2.410887892757619e-12
	3.695291954267941e-12
	4.213708507782438e-12
	2.255187644440842e-11
	5.629281981951369e-11
	1.127593822195625e-11
	1.800000000000000e+00
	1.800000000000000e+00
	1.800000000000000e+00
	1.799999990503997e+00
	0.000000000000000e+00
	-4.209965709378594e-12
	3.334873197733726e-15
	1.800000000000000e+00
	1.400000000000000e-01
	0.000000000000000e+00

 15	1.500000000000000e-01
	8.380428865690637e-11
	3.146639911773179e-12
	4.430158115064868e-12
	4.950084272300687e-12
	2.256513206162988e-11
	5.629944758414368e-11
	1.128256603057890e-11
	1.800000000000000e+00
	1.800000000000000e+00
	1.800000000000000e+00
	1.799999988745249e+00
	0.000000000000000e+00
	-4.947153797729698e-12
	2.429027670445841e-15
	1.800000000000000e+00
	1.500000000000000e-01
	0.000000000000000e+00

 16	1.600000000000000e-01
	1.093673933715904e-10
	4.106836489397228e-12
	5.399510063046084e-12
	5.912189927263649e-12
	2.258243136486024e-11
	5.630809717800441e-11
	1.129121568220964e-11
	1.800000000000000e+00
	1.800000000000000e+00
	1.800000000000000e+00
	1.799999986435698e+00
	0.000000000000000e+00
	-5.908162847845233e-12
	2.308526150734373e-15
	1.800000000000000e+00
	1.600000000000000e-01
	0.000000000000000e+00

 17	1.700000000000000e-01
	1.427226685074028e-10
	5.359900698449328e-12
	6.678310995344860e-12
	7.166091640325562e-12
	2.260500709162839e-11
	5.631938496563852e-11
	1.130250354561402e-11
	1.800000000000000e+00
	1.800000000000000e+00
	1.800000000000000e+00
	1.799999983406519e+00
	0.000000000000000e+00
	-7.164047133301210e-12
	3.914773068066022e-16
	1.800000000000000e+00
	1.700000000000000e-01
	0.000000000000000e+00

 18	1.800000000000000e-01
	1.862426706165280e-10
	6.995092793976391e-12
	8.370697871347281e-12
	8.802745314446420e-12
	2.263446738972661e-11
	5.633411501509785e-11
	1.131723369468964e-11
	1.800000000000000e+00
	1.800000000000000e+00
	1.800000000000000e+00
	1.799999979423997e+00
	0.000000000000000e+00
	-8.800071782388841e-12
	7.373336739252841e-16
	1.800000000000000e+00
	1.800000000000000e-01
	0.000000000000000e+00

 19	1.900000000000000e-01
	2.430210479474446e-10
	9.128845103006445e-12
	1.061265232889951e-11
	1.093800690725279e-11
	2.267290994867979e-11
	5.635333616359449e-11
	1.133645497420081e-11
	1.800000000000000e+00
	1.800000000000000e+00
	1.800000000000000e+00
	1.799999974186194e+00
	0.000000000000000e+00
	-1.093525270334794e-11
	8.464214808525738e-16
	1.800000000000000e+00
	1.900000000000000e-01
	0.000000000000000e+00

 20	2.000000000000000e-01
	3.170910639274357e-10
	1.191301757397990e-11
	1.358454622162392e-11
	1.372246660399264e-11
	2.272307073386316e-11
	5.637841638388418e-11
	1.136153536683761e-11
	1.800000000000000e+00
	1.800000000000000e+00
	1.800000000000000e+00
	1.799999967295935e+00
	0.000000000000000e+00
	-1.372058022752753e-11
	1.697796239455813e-15
	1.800000000000000e+00
	2.000000000000000e-01
	0.000000000000000e+00

 21	2.100000000000000e-01
	4.137100309793977e-10
	1.554565372961405e-11
	1.753337025854545e-11
	1.735953905183655e-11
	2.278851776783377e-11
	5.641113967371607e-11
	1.139425888388180e-11
	1.800000000000000e+00
	1.800000000000000e+00
	1.800000000000000e+00
	1.799999958212174e+00
	0.000000000000000e+00
	-1.735855903461925e-11
	-1.026978404188723e-15
	1.800000000000000e+00
	2.100000000000000e-01
	0.000000000000000e+00

 22	2.200000000000001e-01
	5.397293817525577e-10
	2.028499050177084e-11
	2.277318114627517e-11
	2.210004133729811e-11
	2.287390353429683e-11
	5.645383225795134e-11
	1.143695176719013e-11
	1.800000000000000e+00
	1.800000000000000e+00
	1.800000000000000e+00
	1.799999946255422e+00
	0.000000000000000e+00
	-2.209610272529972e-11
	4.181527745380202e-15
	1.800000000000000e+00
	2.200000000000001e-01
	0.000000000000000e+00

 23	2.300000000000001e-01
	7.040759345807808e-10
	2.646770060620991e-11
	2.973977832407035e-11
	2.828866525851615e-11
	2.298529363307628e-11
	5.650952691299895e-11
	1.149264681668006e-11
	1.800000000000000e+00
	1.800000000000000e+00
	1.800000000000000e+00
	1.799999930485781e+00
	0.000000000000000e+00
	-2.828492995377019e-11
	2.519999778503179e-15
	1.800000000000000e+00
	2.300000000000001e-01
	0.000000000000000e+00

 24	2.400000000000001e-01
	9.183774263432478e-10
	3.453263768393998e-11
	3.899757464641752e-11
	3.636003288307099e-11
	2.313059457262358e-11
	5.658217686295104e-11
	1.156529728658441e-11
	1.800000000000000e+00
	1.800000000000000e+00
	1.800000000000000e+00
	1.799999909698192e+00
	0.000000000000000e+00
	-3.635491907516553e-11
	3.279983296262831e-15
	1.800000000000000e+00
	2.400000000000001e-01
	0.000000000000000e+00

 25	2.500000000000001e-01
	1.197775058495967e-09
	4.505173150011829e-11
	5.130210683400244e-11
	4.688546366528790e-11
	2.332011037184565e-11
	5.667693407717731e-11
	1.166005518636593e-11
	1.800000000000000e+00
	1.800000000000000e+00
	1.800000000000000e+00
	1.799999882289681e+00
	0.000000000000000e+00
	-4.688338606229081e-11
	1.487430612936590e-15
	1.800000000000000e+00
	2.500000000000001e-01
	0.000000000000000e+00

 26	2.600000000000001e-01
	1.561978223710564e-09
	5.877016748438515e-11
	6.766284152918572e-11
	6.061383571493146e-11
	2.356726641995027e-11
	5.680051119707285e-11
	1.178363321064057e-11
	1.800000000000000e+00
	1.800000000000000e+00
	1.800000000000000e+00
	1.799999846132380e+00
	0.000000000000000e+00
	-6.061107171717595e-11
	2.123983827664093e-15
	1.800000000000000e+00
	2.600000000000001e-01
	0.000000000000000e+00

 27	2.700000000000001e-01
	2.036632492937576e-09
	7.665861286340654e-11
	8.941605260448425e-11
	7.851550884508367e-11
	2.388955035094131e-11
	5.696165196970392e-11
	1.194477517642601e-11
	1.800000000000000e+00
	1.800000000000000e+00
	1.800000000000000e+00
	1.799999798429500e+00
	0.000000000000000e+00
	-7.851497230149107e-11
	-4.398880865387896e-16
	1.800000000000000e+00
	2.700000000000001e-01
	0.000000000000000e+00

 28	2.800000000000001e-01
	2.655092268953865e-09
	9.998105993839716e-11
	1.183392954076013e-10
	1.018556048570828e-10
	2.430973424479145e-11
	5.717174234261864e-11
	1.215486712372905e-11
	1.800000000000000e+00
	1.800000000000000e+00
	1.800000000000000e+00
	1.799999735484337e+00
	0.000000000000000e+00
	-1.018545248143710e-10
	-7.380017118533185e-16
	1.800000000000000e+00
	2.800000000000001e-01
	0.000000000000000e+00

 29	2.900000000000001e-01
	3.460715391322287e-09
	1.303828953399434e-10
	1.567892137726424e-10
	1.322766936564682e-10
	2.485746116447998e-11
	5.744560372554005e-11
	1.242873058406603e-11
	1.800000000000000e+00
	1.800000000000000e+00
	1.800000000000000e+00
	1.799999652427303e+00
	0.000000000000000e+00
	-1.322710829754215e-10
	6.448274035982642e-15
	1.800000000000000e+00
	2.900000000000001e-01
	0.000000000000000e+00

 30	3.000000000000001e-01
	4.509829798578168e-09
	1.700051345773333e-10
	2.079116298446911e-10
	1.719292986457921e-10
	2.557130298716362e-11
	5.780252189542279e-11
	1.278565149605000e-11
	1.800000000000000e+00
	1.800000000000000e+00
	1.800000000000000e+00
	1.799999542794850e+00
	0.000000000000000e+00
	-1.719264730581926e-10
	1.851046711797362e-15
	1.800000000000000e+00
	3.000000000000001e-01
	0.000000000000000e+00

 31	3.100000000000001e-01
	5.875563792367599e-09
	2.216324614719841e-10
	2.758618983647984e-10
	2.235924105887192e-10
	2.650142709493438e-11
	5.826758033116005e-11
	1.325071355077209e-11
	1.800000000000000e+00
	1.800000000000000e+00
	1.800000000000000e+00
	1.799999398102685e+00
	0.000000000000000e+00
	-2.235882590184701e-10
	4.596873026462789e-15
	1.800000000000000e+00
	3.100000000000001e-01
	0.000000000000000e+00

 32	3.200000000000001e-01
	7.652783488782648e-09
	2.888848778588520e-10
	3.661752912093304e-10
	2.908950357131908e-10
	2.771304844646139e-11
	5.887338623099143e-11
	1.385652422762554e-11
	1.800000000000000e+00
	1.800000000000000e+00
	1.800000000000000e+00
	1.799999207109377e+00
	0.000000000000000e+00
	-2.908926433065062e-10
	1.093730372629135e-15
	1.800000000000000e+00
	3.200000000000001e-01
	0.000000000000000e+00

 33	3.300000000000001e-01
	9.964445993645594e-09
	3.764655176913894e-10
	4.861773999456219e-10
	3.785376252368327e-10
	2.929089299763150e-11
	5.966230220293889e-11
	1.464544650462999e-11
	1.800000000000000e+00
	1.800000000000000e+00
	1.800000000000000e+00
	1.799998955021144e+00
	0.000000000000000e+00
	-3.785345370488358e-10
	2.953476526671770e-15
	1.800000000000000e+00
	3.300000000000001e-01
	0.000000000000000e+00

 34	3.400000000000001e-01
	1.296975729642428e-08
	4.904806530002655e-10
	6.455978024463984e-10
	4.926355071345033e-10
	3.134496084659941e-11
	6.068932780726999e-11
	1.567248043096176e-11
	1.800000000000000e+00
	1.800000000000000e+00
	1.800000000000000e+00
	1.799998622289586e+00
	0.000000000000000e+00
	-4.926352659140321e-10
	-4.775322913461778e-16
	1.800000000000000e+00
	3.400000000000001e-01
	0.000000000000000e+00

 35	3.500000000000001e-01
	1.687462266874802e-08
	6.388522863240995e-10
	8.573216134461349e-10
	6.411156839568315e-10
	3.401795591841733e-11
	6.202581436245345e-11
	1.700897796927534e-11
	1.800000000000000e+00
	1.800000000000000e+00
	1.800000000000000e+00
	1.799998183157589e+00
	0.000000000000000e+00
	-6.411138286921414e-10
	-4.874033344930285e-16
	1.800000000000000e+00
	3.500000000000001e-01
	0.000000000000000e+00

 36	3.600000000000002e-01
	2.194499734676884e-08
	8.318491826003192e-10
	1.138407039926880e-09
	8.342493356104973e-10
	3.749484689797661e-11
	6.376424536240894e-11
	1.874742346218283e-11
	1.800000000000000e+00
	1.800000000000000e+00
	1.800000000000000e+00
	1.799997603690827e+00
	0.000000000000000e+00
	-8.342446733422548e-10
	4.639572133627251e-15
	1.800000000000000e+00
	3.600000000000002e-01
	0.000000000000000e+00

 37	3.700000000000002e-01
	2.852388911767483e-08
	1.082768968738213e-09
	1.511444047849069e-09
	1.085349921823887e-09
	4.201514545847469e-11
	6.602437552517164e-11
	2.100757274649846e-11
	1.800000000000000e+00
	1.800000000000000e+00
	1.800000000000000e+00
	1.799996839155453e+00
	0.000000000000000e+00
	-1.085348699803035e-09
	1.210809195304720e-15
	1.800000000000000e+00
	3.700000000000002e-01
	0.000000000000000e+00

 38	3.800000000000002e-01
	3.705293404808653e-08
	1.408812269939788e-09
	2.006284057846645e-09
	1.411627823710859e-09
	4.788863689962937e-11
	6.896109602904915e-11
	2.394431847235991e-11
	1.800000000000000e+00
	1.800000000000000e+00
	1.800000000000000e+00
	1.799995830700664e+00
	0.000000000000000e+00
	-1.411624594993555e-09
	3.555973476520251e-15
	1.800000000000000e+00
	3.800000000000002e-01
	0.000000000000000e+00

 39	3.900000000000002e-01
	4.809966245148004e-08
	1.832200019218391e-09
	2.662361950963536e-09
	1.835322855937289e-09
	5.551547942518098e-11
	7.277448404008737e-11
	2.775773974199746e-11
	1.800000000000000e+00
	1.800000000000000e+00
	1.800000000000000e+00
	1.799994500908021e+00
	0.000000000000000e+00
	-1.835319451970463e-09
	1.521311058953355e-15
	1.800000000000000e+00
	3.900000000000002e-01
	0.000000000000000e+00

 40	4.000000000000002e-01
	6.239179224177857e-08
	2.381597325275839e-09
	3.531687056391830e-09
	2.385115400926885e-09
	6.541180561290605e-11
	7.772260330434120e-11
	3.270590284476395e-11
	1.800000000000000e+00
	1.800000000000000e+00
	1.800000000000000e+00
	1.799992748082932e+00
	0.000000000000000e+00
	-2.385112551905877e-09
	1.579603751280285e-15
	1.800000000000000e+00
	4.000000000000002e-01
	0.000000000000000e+00

 41	4.100000000000002e-01
	8.086012489023792e-08
	3.093921827195897e-09
	4.682792863671415e-09
	3.097952492517174e-09
	7.824221599438843e-11
	8.413775074956340e-11
	3.912110804704962e-11
	1.800000000000000e+00
	1.800000000000000e+00
	1.800000000000000e+00
	1.799990438727972e+00
	0.000000000000000e+00
	-3.097950340702482e-09
	1.507987360454984e-15
	1.800000000000000e+00
	4.100000000000002e-01
	0.000000000000000e+00

 42	4.200000000000002e-01
	1.046918630102360e-07
	4.016631426425916e-09
	6.205828325072568e-09
	4.021327680783308e-09
	9.486085105159811e-11
	9.244699224168043e-11
	4.743042559060864e-11
	1.800000000000000e+00
	1.800000000000000e+00
	1.800000000000000e+00
	1.799987397871832e+00
	0.000000000000000e+00
	-4.021323718461645e-09
	2.473339415914681e-15
	1.800000000000000e+00
	4.200000000000002e-01
	0.000000000000000e+00

 43	4.300000000000002e-01
	1.353963969689638e-07
	5.210605623334588e-09
	8.219164550476589e-09
	5.216159710123788e-09
	1.163630611154479e-10
	1.031979972209198e-10
	5.818153064188404e-11
	1.800000000000000e+00
	1.799999999999999e+00
	1.800000000000000e+00
	1.799983396545167e+00
	0.000000000000000e+00
	-5.216156395704274e-09
	4.079406540796778e-15
	1.800000000000000e+00
	4.300000000000002e-01
	0.000000000000000e+00

 44	4.400000000000002e-01
	1.748857876633903e-07
	6.753756084241750e-09
	1.087795788538959e-08
	6.760422560553546e-09
	1.441500544280262e-10
	1.170913623277351e-10
	7.207502732318283e-11
	1.800000000000000e+00
	1.800000000000000e+00
	1.800000000000000e+00
	1.799978135575297e+00
	0.000000000000000e+00
	-6.760419779539006e-09
	2.633579589011846e-15
	1.800000000000000e+00
	4.400000000000002e-01
	0.000000000000000e+00

 45	4.500000000000002e-01
	2.255722548279541e-07
	8.745524802316973e-09
	1.438508328085335e-08
	8.753623783158278e-09
	1.800092734002464e-10
	1.350207990154177e-10
	9.000463684157330e-11
	1.800000000000000e+00
	1.799999999999999e+00
	1.800000000000000e+00
	1.799971224940635e+00
	0.000000000000000e+00
	-8.753620051038524e-09
	5.445456824018658e-15
	1.800000000000000e+00
	4.500000000000002e-01
	0.000000000000000e+00

 46	4.600000000000002e-01
	2.904848968071473e-07
	1.131245097858487e-08
	1.900519980998356e-08
	1.132240121998166e-08
	2.262135947947213e-10
	1.581227329781365e-10
	1.131067975804127e-10
	1.799999999999999e+00
	1.799999999999999e+00
	1.800000000000000e+00
	1.799962157238421e+00
	0.000000000000000e+00
	-1.132240079471103e-08
	-9.536289342321313e-16
	1.800000000000000e+00
	4.600000000000002e-01
	0.000000000000000e+00

 47	4.700000000000003e-01
	3.734075290102831e-07
	1.461500843866794e-08
	2.508252574034565e-08
	1.462733322222750e-08
	2.856427206332932e-10
	1.878369987676714e-10
	1.428213605532232e-10
	1.799999999999999e+00
	1.799999999999998e+00
	1.799999999999999e+00
	1.799950274207941e+00
	0.000000000000000e+00
	-1.462733401069727e-08
	4.495543644054525e-16
	1.800000000000000e+00
	4.700000000000003e-01
	0.000000000000000e+00

 48	4.800000000000003e-01
	4.790388225011730e-07
	1.885593088457063e-08
	3.306341439720936e-08
	1.887130530423753e-08
	3.619302445390304e-10
	2.259803719018868e-10
	1.809651225748249e-10
	1.800000000000000e+00
	1.799999999999998e+00
	1.800000000000000e+00
	1.799934724234959e+00
	0.000000000000000e+00
	-1.887130807176618e-08
	3.275599747570010e-16
	1.800000000000000e+00
	4.800000000000003e-01
	0.000000000000000e+00

 49	4.900000000000003e-01
	6.131747229017513e-07
	2.429024822791815e-08
	4.352454631747074e-08
	2.430952837584334e-08
	4.596397366806507e-10
	2.748346100111176e-10
	2.298198687337100e-10
	1.799999999999999e+00
	1.799999999999998e+00
	1.799999999999999e+00
	1.799914409325274e+00
	0.000000000000000e+00
	-2.430953394139124e-08
	1.707943419521781e-16
	1.800000000000000e+00
	4.900000000000003e-01
	0.000000000000000e+00

 50	5.000000000000002e-01
	7.829112982574465e-07
	3.123724795012669e-08
	5.720805753308390e-08
	3.126151666305023e-08
	5.844726401125254e-10
	3.372503993561555e-10
	2.922363205622397e-10
	1.799999999999998e+00
	1.799999999999996e+00
	1.799999999999999e+00
	1.799887919031882e+00
	0.000000000000000e+00
	-3.126152670063220e-08
	4.366222122470640e-16
	1.800000000000000e+00
	5.000000000000002e-01
	0.000000000000000e+00

 51	5.100000000000002e-01
	9.968635853067531e-07
	4.009454389505369e-08
	7.506481377376293e-08
	4.012516598968505e-08
	7.435096272170065e-10
	4.167680310136011e-10
	3.717548142580349e-10
	1.799999999999998e+00
	1.799999999999995e+00
	1.799999999999999e+00
	1.799853449031739e+00
	0.000000000000000e+00
	-4.012518139973054e-08
	3.144642328673062e-15
	1.800000000000000e+00
	5.100000000000002e-01
	0.000000000000000e+00

 52	5.200000000000002e-01
	1.265392610008249e-06
	5.135437311001627e-08
	9.830720758292755e-08
	5.139306632262335e-08
	9.454850983566356e-10
	5.177546477157596e-10
	4.727425500103457e-10
	1.799999999999998e+00
	1.799999999999994e+00
	1.799999999999999e+00
	1.799808701688018e+00
	0.000000000000000e+00
	-5.139309422474980e-08
	-1.469049425435671e-15
	1.800000000000000e+00
	5.200000000000002e-01
	0.000000000000000e+00

 53	5.300000000000002e-01
	1.600828583489317e-06
	6.562214106206505e-08
	1.284727826505436e-07
	6.567103785794311e-08
	1.201091462025170e-09
	6.455563809251261e-10
	6.005457320758653e-10
	1.799999999999996e+00
	1.799999999999992e+00
	1.799999999999998e+00
	1.799750766021161e+00
	0.000000000000000e+00
	-6.567108457034010e-08
	3.627860362923992e-16
	1.800000000000000e+00
	5.300000000000002e-01
	0.000000000000000e+00

 54	5.400000000000003e-01
	2.017673508743832e-06
	8.363708950100089e-08
	1.675001117759770e-07
	8.369884183817377e-08
	1.523305453669595e-09
	8.066615066569576e-10
	7.616527281900711e-10
	1.799999999999996e+00
	1.799999999999990e+00
	1.799999999999998e+00
	1.799675974184957e+00
	0.000000000000000e+00
	-8.369892157134018e-08
	3.226209170442143e-16
	1.800000000000000e+00
	5.400000000000003e-01
	0.000000000000000e+00

 55	5.500000000000003e-01
	2.532761482586808e-06
	1.062947650859768e-07
	2.178178219472154e-07
	1.063726464856752e-07
	1.927722814917782e-09
	1.008867780867243e-09
	9.638614091814199e-10
	1.799999999999994e+00
	1.799999999999987e+00
	1.799999999999997e+00
	1.799579732446857e+00
	0.000000000000000e+00
	-1.063727719241570e-07
	2.200435710204894e-15
	1.800000000000000e+00
	5.500000000000003e-01
	0.000000000000000e+00

 56	5.600000000000003e-01
	3.165350498790744e-06
	1.346707214559394e-07
	2.824476012315129e-07
	1.347687356965369e-07
	2.432880036536863e-09
	1.261443306016536e-09
	1.216440020450919e-09
	1.799999999999993e+00
	1.799999999999983e+00
	1.799999999999996e+00
	1.799456324589295e+00
	0.000000000000000e+00
	-1.347689391195672e-07
	-2.399060802455680e-15
	1.800000000000000e+00
	5.600000000000003e-01
	0.000000000000000e+00

 57	5.700000000000003e-01
	3.937116457815233e-06
	1.700446014273366e-07
	3.651214267884867e-07
	1.701676043764240e-07
	3.060532639099176e-09
	1.575265665768289e-09
	1.530266322305494e-09
	1.799999999999991e+00
	1.799999999999978e+00
	1.799999999999996e+00
	1.799298686539650e+00
	0.000000000000000e+00
	-1.701679259724642e-07
	-3.257400001085515e-15
	1.800000000000000e+00
	5.700000000000003e-01
	0.000000000000000e+00

 58	5.800000000000003e-01
	4.872019435075758e-06
	2.139234380856074e-07
	4.704126294324474e-07
	2.140772766079344e-07
	3.835848967996267e-09
	1.962918816133479e-09
	1.917924487465365e-09
	1.799999999999988e+00
	1.799999999999971e+00
	1.799999999999994e+00
	1.799098151890541e+00
	0.000000000000000e+00
	-2.140777759507273e-07
	-4.028163557607043e-15
	1.800000000000000e+00
	5.800000000000003e-01
	0.000000000000000e+00

 59	5.900000000000003e-01
	5.996015109246231e-06
	2.680627132556899e-07
	6.038796161784248e-07
	2.682543453650838e-07
	4.787467439137569e-09
	2.438721701248334e-09
	2.393733723913740e-09
	1.799999999999985e+00
	1.799999999999963e+00
	1.799999999999992e+00
	1.798844169048751e+00
	0.000000000000000e+00
	-2.682551141219847e-07
	-2.423659180782289e-15
	1.800000000000000e+00
	5.900000000000003e-01
	0.000000000000000e+00

 60	6.000000000000003e-01
	7.336591371766277e-06
	3.344834581617957e-07
	7.722205845499646e-07
	3.347210838403337e-07
	5.947354731940315e-09
	3.018657342116084e-09
	2.973677371392045e-09
	1.799999999999981e+00
	1.799999999999953e+00
	1.799999999999990e+00
	1.798523991118144e+00
	0.000000000000000e+00
	-3.347222552463336e-07
	-3.320436840056365e-15
	1.800000000000000e+00
	6.000000000000003e-01
	0.000000000000000e+00

 61	6.100000000000003e-01
	8.922121691056255e-06
	4.154835183484643e-07
	9.834366664021607e-07
	4.157766773570128e-07
	7.350394212693543e-09
	3.720167039907067e-09
	3.675197113082122e-09
	1.799999999999976e+00
	1.799999999999940e+00
	1.799999999999988e+00
	1.798122340630616e+00
	0.000000000000000e+00
	-4.157784356806360e-07
	-2.205992803936163e-15
	1.800000000000000e+00
	6.100000000000003e-01
	0.000000000000000e+00

 62	6.200000000000003e-01
	1.078104205430246e-05
	5.136410747259928e-07
	1.247000857070619e-06
	5.140007130265790e-07
	9.033629787996012e-09
	4.561772293701835e-09
	4.516814902325257e-09
	1.799999999999970e+00
	1.799999999999924e+00
	1.799999999999985e+00
	1.797621050513984e+00
	0.000000000000000e+00
	-5.140033199069194e-07
	-9.079652440750280e-16
	1.800000000000000e+00
	6.200000000000003e-01
	0.000000000000000e+00

 63	6.300000000000003e-01
	1.294087552672745e-05
	6.318086448233382e-07
	1.574030017913929e-06
	6.322471284237811e-07
	1.103509253891726e-08
	5.562488108012549e-09
	5.517546279702613e-09
	1.799999999999961e+00
	1.799999999999903e+00
	1.799999999999981e+00
	1.796998681722385e+00
	0.000000000000000e+00
	-6.322509502609819e-07
	-3.004964986268161e-15
	1.800000000000000e+00
	6.300000000000003e-01
	0.000000000000000e+00

 64	6.400000000000003e-01
	1.542714509315664e-05
	7.730960909884223e-07
	1.977457945461352e-06
	7.736271512306081e-07
	1.339214772607010e-08
	6.740996485119451e-09
	6.696073875571244e-09
	1.799999999999951e+00
	1.799999999999878e+00
	1.799999999999976e+00
	1.796230115232735e+00
	0.000000000000000e+00
	-7.736326779195224e-07
	-2.733569314599003e-15
	1.800000000000000e+00
	6.400000000000003e-01
	0.000000000000000e+00

 65	6.500000000000004e-01
	1.826222861292707e-05
	9.408416157180668e-07
	2.472208794906936e-06
	9.414802018565397e-07
	1.613931938202896e-08
	8.114558710276349e-09
	8.069659706272788e-09
	1.799999999999939e+00
	1.799999999999848e+00
	1.799999999999970e+00
	1.795286111878408e+00
	0.000000000000000e+00
	-9.414880892677502e-07
	-3.042951430467144e-15
	1.800000000000000e+00
	6.500000000000004e-01
	0.000000000000000e+00

 66	6.600000000000004e-01
	2.146421700994553e-05
	1.138570280976703e-06
	3.075372216205783e-06
	1.139332278246486e-06
	1.930557901371612e-08
	9.697659690776375e-09
	9.652789525325950e-09
	1.799999999999924e+00
	1.799999999999811e+00
	1.799999999999962e+00
	1.794132827226085e+00
	0.000000000000000e+00
	-1.139343398293136e-06
	2.877801523822215e-15
	1.800000000000000e+00
	6.600000000000004e-01
	0.000000000000000e+00

 67	6.700000000000004e-01
	2.504583704249805e-05
	1.369940180286114e-06
	3.806384740042793e-06
	1.370842016071817e-06
	2.291112284927523e-08
	1.150039656558793e-08
	1.145556144686243e-08
	1.799999999999906e+00
	1.799999999999766e+00
	1.799999999999953e+00
	1.792731259506791e+00
	0.000000000000000e+00
	-1.370857525273550e-06
	-3.909716102561769e-15
	1.800000000000000e+00
	6.700000000000004e-01
	0.000000000000000e+00

 68	6.800000000000004e-01
	2.901349368711597e-05
	1.638676946382378e-06
	4.687225455177038e-06
	1.639734995264162e-06
	2.696370624895470e-08
	1.352664589449642e-08
	1.348185315106757e-08
	1.799999999999885e+00
	1.799999999999712e+00
	1.799999999999942e+00
	1.791036597573438e+00
	0.000000000000000e+00
	-1.639756392890490e-06
	-3.173703394678139e-15
	1.800000000000000e+00
	6.800000000000004e-01
	0.000000000000000e+00

 69	6.900000000000004e-01
	3.336647643241627e-05
	1.948497726852057e-06
	5.742639932173030e-06
	1.949727550815593e-06
	3.145465006207821e-08
	1.577206681652682e-08
	1.572732506266442e-08
	1.799999999999859e+00